# vtk DataFile Version 3.0
vtk output
ASCII
DATASET STRUCTURED_GRID
DIMENSIONS 7 7 7
POINTS 343 double
54.4 54.4 178.1 58.4 54.4 178.1 62.4 54.4 178.1 
66.4 54.4 178.1 70.4 54.4 178.1 74.4 54.4 178.1 
78.4 54.4 178.1 54.4 58.4 178.1 58.4 58.4 178.1 
62.4 58.4 178.1 66.4 58.4 178.1 70.4 58.4 178.1 
74.4 58.4 178.1 78.4 58.4 178.1 54.4 62.4 178.1 
58.4 62.4 178.1 62.4 62.4 178.1 66.4 62.4 178.1 
70.4 62.4 178.1 74.4 62.4 178.1 78.4 62.4 178.1 
54.4 66.4 178.1 58.4 66.4 178.1 62.4 66.4 178.1 
66.4 66.4 178.1 70.4 66.4 178.1 74.4 66.4 178.1 
78.4 66.4 178.1 54.4 70.4 178.1 58.4 70.4 178.1 
62.4 70.4 178.1 66.4 70.4 178.1 70.4 70.4 178.1 
74.4 70.4 178.1 78.4 70.4 178.1 54.4 74.4 178.1 
58.4 74.4 178.1 62.4 74.4 178.1 66.4 74.4 178.1 
70.4 74.4 178.1 74.4 74.4 178.1 78.4 74.4 178.1 
54.4 78.4 178.1 58.4 78.4 178.1 62.4 78.4 178.1 
66.4 78.4 178.1 70.4 78.4 178.1 74.4 78.4 178.1 
78.4 78.4 178.1 54.4 54.4 182.1 58.4 54.4 182.1 
62.4 54.4 182.1 66.4 54.4 182.1 70.4 54.4 182.1 
74.4 54.4 182.1 78.4 54.4 182.1 54.4 58.4 182.1 
58.4 58.4 182.1 62.4 58.4 182.1 66.4 58.4 182.1 
70.4 58.4 182.1 74.4 58.4 182.1 78.4 58.4 182.1 
54.4 62.4 182.1 58.4 62.4 182.1 62.4 62.4 182.1 
66.4 62.4 182.1 70.4 62.4 182.1 74.4 62.4 182.1 
78.4 62.4 182.1 54.4 66.4 182.1 58.4 66.4 182.1 
62.4 66.4 182.1 66.4 66.4 182.1 70.4 66.4 182.1 
74.4 66.4 182.1 78.4 66.4 182.1 54.4 70.4 182.1 
58.4 70.4 182.1 62.4 70.4 182.1 66.4 70.4 182.1 
70.4 70.4 182.1 74.4 70.4 182.1 78.4 70.4 182.1 
54.4 74.4 182.1 58.4 74.4 182.1 62.4 74.4 182.1 
66.4 74.4 182.1 70.4 74.4 182.1 74.4 74.4 182.1 
78.4 74.4 182.1 54.4 78.4 182.1 58.4 78.4 182.1 
62.4 78.4 182.1 66.4 78.4 182.1 70.4 78.4 182.1 
74.4 78.4 182.1 78.4 78.4 182.1 54.4 54.4 186.1 
58.4 54.4 186.1 62.4 54.4 186.1 66.4 54.4 186.1 
70.4 54.4 186.1 74.4 54.4 186.1 78.4 54.4 186.1 
54.4 58.4 186.1 58.4 58.4 186.1 62.4 58.4 186.1 
66.4 58.4 186.1 70.4 58.4 186.1 74.4 58.4 186.1 
78.4 58.4 186.1 54.4 62.4 186.1 58.4 62.4 186.1 
62.4 62.4 186.1 66.4 62.4 186.1 70.4 62.4 186.1 
74.4 62.4 186.1 78.4 62.4 186.1 54.4 66.4 186.1 
58.4 66.4 186.1 62.4 66.4 186.1 66.4 66.4 186.1 
70.4 66.4 186.1 74.4 66.4 186.1 78.4 66.4 186.1 
54.4 70.4 186.1 58.4 70.4 186.1 62.4 70.4 186.1 
66.4 70.4 186.1 70.4 70.4 186.1 74.4 70.4 186.1 
78.4 70.4 186.1 54.4 74.4 186.1 58.4 74.4 186.1 
62.4 74.4 186.1 66.4 74.4 186.1 70.4 74.4 186.1 
74.4 74.4 186.1 78.4 74.4 186.1 54.4 78.4 186.1 
58.4 78.4 186.1 62.4 78.4 186.1 66.4 78.4 186.1 
70.4 78.4 186.1 74.4 78.4 186.1 78.4 78.4 186.1 
54.4 54.4 190.1 58.4 54.4 190.1 62.4 54.4 190.1 
66.4 54.4 190.1 70.4 54.4 190.1 74.4 54.4 190.1 
78.4 54.4 190.1 54.4 58.4 190.1 58.4 58.4 190.1 
62.4 58.4 190.1 66.4 58.4 190.1 70.4 58.4 190.1 
74.4 58.4 190.1 78.4 58.4 190.1 54.4 62.4 190.1 
58.4 62.4 190.1 62.4 62.4 190.1 66.4 62.4 190.1 
70.4 62.4 190.1 74.4 62.4 190.1 78.4 62.4 190.1 
54.4 66.4 190.1 58.4 66.4 190.1 62.4 66.4 190.1 
66.4 66.4 190.1 70.4 66.4 190.1 74.4 66.4 190.1 
78.4 66.4 190.1 54.4 70.4 190.1 58.4 70.4 190.1 
62.4 70.4 190.1 66.4 70.4 190.1 70.4 70.4 190.1 
74.4 70.4 190.1 78.4 70.4 190.1 54.4 74.4 190.1 
58.4 74.4 190.1 62.4 74.4 190.1 66.4 74.4 190.1 
70.4 74.4 190.1 74.4 74.4 190.1 78.4 74.4 190.1 
54.4 78.4 190.1 58.4 78.4 190.1 62.4 78.4 190.1 
66.4 78.4 190.1 70.4 78.4 190.1 74.4 78.4 190.1 
78.4 78.4 190.1 54.4 54.4 194.1 58.4 54.4 194.1 
62.4 54.4 194.1 66.4 54.4 194.1 70.4 54.4 194.1 
74.4 54.4 194.1 78.4 54.4 194.1 54.4 58.4 194.1 
58.4 58.4 194.1 62.4 58.4 194.1 66.4 58.4 194.1 
70.4 58.4 194.1 74.4 58.4 194.1 78.4 58.4 194.1 
54.4 62.4 194.1 58.4 62.4 194.1 62.4 62.4 194.1 
66.4 62.4 194.1 70.4 62.4 194.1 74.4 62.4 194.1 
78.4 62.4 194.1 54.4 66.4 194.1 58.4 66.4 194.1 
62.4 66.4 194.1 66.4 66.4 194.1 70.4 66.4 194.1 
74.4 66.4 194.1 78.4 66.4 194.1 54.4 70.4 194.1 
58.4 70.4 194.1 62.4 70.4 194.1 66.4 70.4 194.1 
70.4 70.4 194.1 74.4 70.4 194.1 78.4 70.4 194.1 
54.4 74.4 194.1 58.4 74.4 194.1 62.4 74.4 194.1 
66.4 74.4 194.1 70.4 74.4 194.1 74.4 74.4 194.1 
78.4 74.4 194.1 54.4 78.4 194.1 58.4 78.4 194.1 
62.4 78.4 194.1 66.4 78.4 194.1 70.4 78.4 194.1 
74.4 78.4 194.1 78.4 78.4 194.1 54.4 54.4 198.1 
58.4 54.4 198.1 62.4 54.4 198.1 66.4 54.4 198.1 
70.4 54.4 198.1 74.4 54.4 198.1 78.4 54.4 198.1 
54.4 58.4 198.1 58.4 58.4 198.1 62.4 58.4 198.1 
66.4 58.4 198.1 70.4 58.4 198.1 74.4 58.4 198.1 
78.4 58.4 198.1 54.4 62.4 198.1 58.4 62.4 198.1 
62.4 62.4 198.1 66.4 62.4 198.1 70.4 62.4 198.1 
74.4 62.4 198.1 78.4 62.4 198.1 54.4 66.4 198.1 
58.4 66.4 198.1 62.4 66.4 198.1 66.4 66.4 198.1 
70.4 66.4 198.1 74.4 66.4 198.1 78.4 66.4 198.1 
54.4 70.4 198.1 58.4 70.4 198.1 62.4 70.4 198.1 
66.4 70.4 198.1 70.4 70.4 198.1 74.4 70.4 198.1 
78.4 70.4 198.1 54.4 74.4 198.1 58.4 74.4 198.1 
62.4 74.4 198.1 66.4 74.4 198.1 70.4 74.4 198.1 
74.4 74.4 198.1 78.4 74.4 198.1 54.4 78.4 198.1 
58.4 78.4 198.1 62.4 78.4 198.1 66.4 78.4 198.1 
70.4 78.4 198.1 74.4 78.4 198.1 78.4 78.4 198.1 
54.4 54.4 202.1 58.4 54.4 202.1 62.4 54.4 202.1 
66.4 54.4 202.1 70.4 54.4 202.1 74.4 54.4 202.1 
78.4 54.4 202.1 54.4 58.4 202.1 58.4 58.4 202.1 
62.4 58.4 202.1 66.4 58.4 202.1 70.4 58.4 202.1 
74.4 58.4 202.1 78.4 58.4 202.1 54.4 62.4 202.1 
58.4 62.4 202.1 62.4 62.4 202.1 66.4 62.4 202.1 
70.4 62.4 202.1 74.4 62.4 202.1 78.4 62.4 202.1 
54.4 66.4 202.1 58.4 66.4 202.1 62.4 66.4 202.1 
66.4 66.4 202.1 70.4 66.4 202.1 74.4 66.4 202.1 
78.4 66.4 202.1 54.4 70.4 202.1 58.4 70.4 202.1 
62.4 70.4 202.1 66.4 70.4 202.1 70.4 70.4 202.1 
74.4 70.4 202.1 78.4 70.4 202.1 54.4 74.4 202.1 
58.4 74.4 202.1 62.4 74.4 202.1 66.4 74.4 202.1 
70.4 74.4 202.1 74.4 74.4 202.1 78.4 74.4 202.1 
54.4 78.4 202.1 58.4 78.4 202.1 62.4 78.4 202.1 
66.4 78.4 202.1 70.4 78.4 202.1 74.4 78.4 202.1 
78.4 78.4 202.1 
POINT_DATA 343
SCALARS Pressure%20magnitude double
LOOKUP_TABLE default
1546.86 1595.93 1520.09 1444.55 1410.57 1507.26 1706.44 1595.93 1379.79 
1119.18 990.312 1095.2 1356.9 1599.24 1520.09 1119.18 892.059 866.628 
939.884 1164.35 1478.66 1444.55 990.312 866.628 924.939 919.77 1059.58 
1432.07 1410.57 1095.2 939.884 919.77 956.967 1133.72 1437.97 1507.26 
1356.9 1164.35 1059.58 1133.72 1340.29 1550.7 1706.44 1599.24 1478.66 
1432.07 1437.97 1550.7 1720.62 1480.49 1538.15 1514.23 1479.34 1433.76 
1468.23 1616.98 1538.15 1310.36 1063.97 948.565 1043.72 1289.14 1540.25 
1514.23 1063.97 775.277 724.981 826.218 1103.3 1479.4 1479.34 948.565 
724.981 754.491 786.489 1012.89 1465.94 1433.76 1043.72 826.218 786.489 
850.124 1084.75 1452.11 1468.23 1289.14 1103.3 1012.89 1084.75 1280.99 
1500.11 1616.98 1540.25 1479.4 1465.94 1452.11 1500.11 1622.27 1408.45 
1477.49 1500.24 1499.44 1446.17 1428.84 1528.79 1477.49 1243.87 1014.54 
911.236 992.853 1219.44 1478.48 1500.24 1014.54 675.076 595.97 718.397 
1038.56 1467.56 1499.44 911.236 595.97 592.004 659.276 962.735 1481.71 
1446.17 992.853 718.397 659.276 749.213 1035.1 1455.63 1428.84 1219.44 
1038.56 962.735 1035.1 1224.04 1452.26 1528.79 1478.48 1467.56 1481.71 
1455.63 1452.26 1529.37 1334.48 1416.17 1479.34 1506.4 1448.69 1390.14 
1445.39 1416.17 1181.63 971.395 879.096 944.938 1150.68 1415.99 1479.34 
971.395 595.2 485.015 620.866 973.222 1444.88 1506.4 879.096 485.015 
440.482 542.009 911.292 1481.36 1448.69 944.938 620.866 542.009 657.078 
985.762 1449.01 1390.14 1150.68 973.222 911.292 985.762 1169.88 1407.57 
1445.39 1415.99 1444.88 1481.36 1449.01 1407.57 1445.39 1261.69 1355.84 
1452.79 1502.12 1442.7 1353.11 1369.58 1355.84 1124.42 934.708 852.869 
902.288 1085.66 1354.69 1452.79 934.708 538.93 400.023 539.112 910.577 
1413.53 1502.12 852.869 400.023 305.01 440.226 861.019 1467.32 1442.7 
902.288 539.112 440.226 577.086 937.908 1433.24 1353.11 1085.66 910.577 
861.019 937.908 1118.81 1366 1369.58 1354.69 1413.53 1467.32 1433.24 
1366 1372.55 1192.58 1297.72 1421.76 1488.56 1429.83 1318.64 1303.52 
1297.72 1072.66 904.394 833.054 866.97 1027.08 1296.42 1421.76 904.394 
507.894 350.948 479.502 853.911 1375.82 1488.56 833.054 350.948 199.346 
362.434 814.482 1442.19 1429.83 866.97 479.502 362.434 513.19 892.849 
1409.57 1318.64 1027.08 853.911 814.482 892.849 1071.12 1327.29 1303.52 
1296.42 1375.82 1442.19 1409.57 1327.29 1311.91 1129.17 1242.68 1387.36 
1467.63 1411.76 1287.61 1248.83 1242.68 1026.52 880.163 819.806 840.543 
977.351 1242.93 1387.36 880.163 500.78 343.841 447.761 806.295 1334.14 
1467.63 819.806 343.841 161.999 319.902 774.149 1408.58 1411.76 840.543 
447.761 319.902 469.51 851.967 1379.45 1287.61 977.351 806.295 774.149 
851.967 1027.15 1291.12 1248.83 1242.93 1334.14 1408.58 1379.45 1291.12 
1263.52 
VECTORS Force%20field double
-2.41633e-07 -2.41633e-07 1.01318e-07 4.94717e-08 2.6416e-07 9.35005e-08 1.38346e-07 6.63252e-07 2.34895e-09 
9.88164e-08 7.71858e-07 -6.67175e-08 -2.23664e-08 5.16401e-07 -4.39672e-08 -2.85104e-07 1.86025e-07 6.25249e-08 
-3.34999e-07 1.01759e-07 1.61528e-07 2.6416e-07 4.94717e-08 9.35005e-08 3.88445e-07 3.88445e-07 1.05654e-07 
2.6585e-07 4.32812e-07 7.28659e-08 1.78243e-08 3.69239e-07 4.95032e-08 -2.41889e-07 3.13941e-07 6.2124e-08 
-4.12402e-07 2.81234e-07 9.69085e-08 -3.32091e-07 2.40011e-07 9.76972e-08 6.63252e-07 1.38346e-07 2.34895e-09 
4.32812e-07 2.6585e-07 7.28659e-08 1.12745e-07 1.12745e-07 1.22066e-07 -2.31569e-08 -1.4783e-08 1.39547e-07 
-1.51825e-07 7.68171e-08 1.19836e-07 -3.84126e-07 2.11509e-07 7.48298e-08 -4.83624e-07 1.32887e-07 -1.23109e-08 
7.71858e-07 9.88164e-08 -6.67175e-08 3.69239e-07 1.78243e-08 4.95032e-08 -1.4783e-08 -2.31569e-08 1.39547e-07 
-2.48379e-08 -2.48379e-08 1.7488e-07 -3.55732e-08 -6.21634e-09 1.37021e-07 -3.42108e-07 2.21893e-08 5.28989e-08 
-6.1452e-07 3.24494e-08 -6.81826e-08 5.16401e-07 -2.23664e-08 -4.39672e-08 3.13941e-07 -2.41889e-07 6.2124e-08 
7.68171e-08 -1.51825e-07 1.19836e-07 -6.21634e-09 -3.55732e-08 1.37021e-07 -1.03312e-07 -1.03312e-07 1.15153e-07 
-3.32928e-07 -1.9155e-07 6.12143e-08 -4.91234e-07 -7.93622e-08 -2.9659e-08 1.86025e-07 -2.85104e-07 6.25249e-08 
2.81234e-07 -4.12402e-07 9.69085e-08 2.11509e-07 -3.84126e-07 7.48298e-08 2.21893e-08 -3.42108e-07 5.28989e-08 
-1.9155e-07 -3.32928e-07 6.12143e-08 -3.37814e-07 -3.37814e-07 8.86755e-08 -3.08536e-07 -2.81017e-07 8.7098e-08 
1.01759e-07 -3.34999e-07 1.61528e-07 2.40011e-07 -3.32091e-07 9.76972e-08 1.32887e-07 -4.83624e-07 -1.23109e-08 
3.24494e-08 -6.1452e-07 -6.81826e-08 -7.93622e-08 -4.91234e-07 -2.9659e-08 -2.81017e-07 -3.08536e-07 8.7098e-08 
-2.596e-07 -2.596e-07 1.83029e-07 -2.01008e-07 -2.01008e-07 1.10017e-07 -1.14597e-08 3.02489e-07 9.80301e-08 
4.58233e-08 7.36033e-07 1.68208e-08 7.13952e-08 8.89184e-07 -4.40875e-08 4.35122e-08 6.41493e-07 -2.78829e-08 
-1.67882e-07 2.59074e-07 6.27054e-08 -2.78665e-07 9.24805e-08 1.55383e-07 3.02489e-07 -1.14597e-08 9.80301e-08 
3.65627e-07 3.65627e-07 9.7996e-08 2.30679e-07 4.80286e-07 6.31727e-08 1.35694e-08 4.58976e-07 4.32703e-08 
-2.10259e-07 3.84473e-07 5.97909e-08 -3.81962e-07 2.79602e-07 9.69728e-08 -3.6548e-07 1.42068e-07 1.0098e-07 
7.36033e-07 4.58233e-08 1.68208e-08 4.80286e-07 2.30679e-07 6.31727e-08 1.43482e-07 1.43482e-07 9.41508e-08 
-2.28915e-08 4.62181e-08 1.08913e-07 -1.75551e-07 1.08396e-07 1.02072e-07 -4.34293e-07 1.81756e-07 7.71357e-08 
-5.93299e-07 4.50931e-08 8.76173e-09 8.89184e-07 7.13952e-08 -4.40875e-08 4.58976e-07 1.35694e-08 4.32703e-08 
4.62181e-08 -2.28915e-08 1.08913e-07 -2.56039e-08 -2.56039e-08 1.37579e-07 -9.08088e-08 -9.189e-09 1.13706e-07 
-4.28636e-07 1.27602e-08 5.54076e-08 -7.48482e-07 2.02634e-08 -4.01238e-08 6.41493e-07 4.35122e-08 -2.78829e-08 
3.84473e-07 -2.10259e-07 5.97909e-08 1.08396e-07 -1.75551e-07 1.02072e-07 -9.189e-09 -9.08088e-08 1.13706e-07 
-1.36116e-07 -1.36116e-07 9.83111e-08 -3.94169e-07 -1.70993e-07 5.99064e-08 -5.96299e-07 -2.80838e-09 -1.346e-08 
2.59074e-07 -1.67882e-07 6.27054e-08 2.79602e-07 -3.81962e-07 9.69728e-08 1.81756e-07 -4.34293e-07 7.71357e-08 
1.27602e-08 -4.28636e-07 5.54076e-08 -1.70993e-07 -3.94169e-07 5.99064e-08 -3.16979e-07 -3.16979e-07 8.22389e-08 
-3.38363e-07 -1.6163e-07 8.10932e-08 9.24805e-08 -2.78665e-07 1.55383e-07 1.42068e-07 -3.6548e-07 1.0098e-07 
4.50931e-08 -5.93299e-07 8.76173e-09 2.02634e-08 -7.48482e-07 -4.01238e-08 -2.80838e-09 -5.96299e-07 -1.346e-08 
-1.6163e-07 -3.38363e-07 8.10932e-08 -2.13327e-07 -2.13327e-07 1.68176e-07 -1.69589e-07 -1.69589e-07 1.10927e-07 
-6.67666e-08 3.26263e-07 9.75845e-08 -3.28898e-08 7.86574e-07 2.90585e-08 4.60895e-08 9.80057e-07 -2.20237e-08 
9.54425e-08 7.48517e-07 -1.18729e-08 -6.72034e-08 3.29413e-07 6.09275e-08 -2.21492e-07 8.58274e-08 1.4251e-07 
3.26263e-07 -6.67666e-08 9.75845e-08 3.37342e-07 3.37342e-07 8.84709e-08 1.97846e-07 5.06009e-07 5.36019e-08 
1.28796e-08 5.20296e-07 3.68431e-08 -1.76859e-07 4.36173e-07 5.50657e-08 -3.49849e-07 2.78917e-07 9.26003e-08 
-3.94217e-07 6.21123e-08 1.00036e-07 7.86574e-07 -3.28898e-08 2.90585e-08 5.06009e-07 1.97846e-07 5.36019e-08 
1.63286e-07 1.63286e-07 6.87555e-08 -1.77506e-08 9.07081e-08 8.01643e-08 -1.83141e-07 1.29436e-07 8.28026e-08 
-4.63949e-07 1.54646e-07 7.51982e-08 -6.86052e-07 -2.66534e-08 2.74045e-08 9.80057e-07 4.60895e-08 -2.20237e-08 
5.20296e-07 1.28796e-08 3.68431e-08 9.07081e-08 -1.77506e-08 8.01643e-08 -2.26605e-08 -2.26605e-08 1.02253e-07 
-1.25564e-07 -1.13363e-08 9.0009e-08 -4.87575e-07 2.36277e-09 5.52926e-08 -8.59573e-07 6.38906e-09 -1.29725e-08 
7.48517e-07 9.54425e-08 -1.18729e-08 4.36173e-07 -1.76859e-07 5.50657e-08 1.29436e-07 -1.83141e-07 8.28026e-08 
-1.13363e-08 -1.25564e-07 9.0009e-08 -1.57349e-07 -1.57349e-07 8.09588e-08 -4.37288e-07 -1.55307e-07 5.7454e-08 
-6.8515e-07 5.3688e-08 2.85007e-09 3.29413e-07 -6.72034e-08 6.09275e-08 2.78917e-07 -3.49849e-07 9.26003e-08 
1.54646e-07 -4.63949e-07 7.51982e-08 2.36277e-09 -4.87575e-07 5.52926e-08 -1.55307e-07 -4.37288e-07 5.7454e-08 
-2.99679e-07 -2.99679e-07 7.52599e-08 -3.64227e-07 -6.37996e-08 7.40595e-08 8.58274e-08 -2.21492e-07 1.4251e-07 
6.21123e-08 -3.94217e-07 1.00036e-07 -2.66534e-08 -6.86052e-07 2.74045e-08 6.38906e-09 -8.59573e-07 -1.29725e-08 
5.3688e-08 -6.8515e-07 2.85007e-09 -6.37996e-08 -3.64227e-07 7.40595e-08 -1.66081e-07 -1.66081e-07 1.47384e-07 
-1.45612e-07 -1.45612e-07 1.06096e-07 -1.13857e-07 3.38176e-07 9.37546e-08 -9.66403e-08 8.16234e-07 3.8906e-08 
2.3719e-08 1.04337e-06 -2.0817e-09 1.3356e-07 8.33563e-07 2.6636e-09 1.4682e-08 3.93321e-07 5.76259e-08 
-1.68085e-07 8.35809e-08 1.25502e-07 3.38176e-07 -1.13857e-07 9.37546e-08 3.0615e-07 3.0615e-07 7.8283e-08 
1.67836e-07 5.1323e-07 4.4552e-08 1.42588e-08 5.55862e-07 3.02132e-08 -1.43931e-07 4.69527e-07 4.82841e-08 
-3.17055e-07 2.7817e-07 8.46641e-08 -4.16676e-07 1.21519e-09 9.57051e-08 8.16234e-07 -9.66403e-08 3.8906e-08 
5.1323e-07 1.67836e-07 4.4552e-08 1.73429e-07 1.73429e-07 4.64836e-08 -9.9888e-09 1.20502e-07 5.41589e-08 
-1.78406e-07 1.41515e-07 6.30835e-08 -4.74733e-07 1.31044e-07 6.95412e-08 -7.57873e-07 -8.16745e-08 4.24412e-08 
1.04337e-06 2.3719e-08 -2.0817e-09 5.55862e-07 1.42588e-08 3.02132e-08 1.20502e-07 -9.9888e-09 5.41589e-08 
-1.73061e-08 -1.73061e-08 7.01485e-08 -1.4306e-07 -1.21971e-08 6.6986e-08 -5.20721e-07 -7.41126e-09 5.25378e-08 
-9.44078e-07 -7.76498e-09 1.11691e-08 8.33563e-07 1.3356e-07 2.6636e-09 4.69527e-07 -1.43931e-07 4.82841e-08 
1.41515e-07 -1.78406e-07 6.30835e-08 -1.21971e-08 -1.4306e-07 6.6986e-08 -1.67962e-07 -1.67962e-07 6.37937e-08 
-4.62966e-07 -1.43189e-07 5.38283e-08 -7.55362e-07 9.13978e-08 1.80221e-08 3.93321e-07 1.4682e-08 5.76259e-08 
2.7817e-07 -3.17055e-07 8.46641e-08 1.31044e-07 -4.74733e-07 6.95412e-08 -7.41126e-09 -5.20721e-07 5.25378e-08 
-1.43189e-07 -4.62966e-07 5.38283e-08 -2.85529e-07 -2.85529e-07 6.82329e-08 -3.86658e-07 1.08712e-08 6.70799e-08 
8.35809e-08 -1.68085e-07 1.25502e-07 1.21519e-09 -4.16676e-07 9.57051e-08 -8.16745e-08 -7.57873e-07 4.24412e-08 
-7.76498e-09 -9.44078e-07 1.11691e-08 9.13978e-08 -7.55362e-07 1.80221e-08 1.08712e-08 -3.86658e-07 6.70799e-08 
-1.23268e-07 -1.23268e-07 1.24065e-07 -1.26939e-07 -1.26939e-07 9.73709e-08 -1.51398e-07 3.40861e-07 8.77822e-08 
-1.45776e-07 8.2706e-07 4.63728e-08 4.46473e-09 1.07974e-06 1.48432e-08 1.58842e-07 8.94767e-07 1.48551e-08 
7.7498e-08 4.47965e-07 5.30835e-08 -1.215e-07 8.64842e-08 1.0634e-07 3.40861e-07 -1.51398e-07 8.77822e-08 
2.73926e-07 2.73926e-07 6.8193e-08 1.406e-07 5.05346e-07 3.62551e-08 1.63044e-08 5.69207e-07 2.35184e-08 
-1.13171e-07 4.86058e-07 3.99738e-08 -2.84349e-07 2.76481e-07 7.40581e-08 -4.31706e-07 -4.1337e-08 8.86753e-08 
8.2706e-07 -1.45776e-07 4.63728e-08 5.05346e-07 1.406e-07 3.62551e-08 1.75323e-07 1.75323e-07 2.75684e-08 
-1.48569e-09 1.37833e-07 3.14005e-08 -1.65025e-07 1.46367e-07 4.38379e-08 -4.69192e-07 1.1133e-07 6.09389e-08 
-8.0682e-07 -1.20628e-07 5.32826e-08 1.07974e-06 4.46473e-09 1.48432e-08 5.69207e-07 1.63044e-08 2.35184e-08 
1.37833e-07 -1.48569e-09 3.14005e-08 -1.06687e-08 -1.06687e-08 4.19837e-08 -1.46848e-07 -1.15321e-08 4.54345e-08 
-5.31139e-07 -1.53607e-08 4.74582e-08 -1.00059e-06 -2.09305e-08 3.10601e-08 8.94767e-07 1.58842e-07 1.48551e-08 
4.86058e-07 -1.13171e-07 3.99738e-08 1.46367e-07 -1.65025e-07 4.38379e-08 -1.15321e-08 -1.46848e-07 4.54345e-08 
-1.69328e-07 -1.69328e-07 4.73438e-08 -4.727e-07 -1.33227e-07 4.90916e-08 -8.05837e-07 1.12903e-07 3.11661e-08 
4.47965e-07 7.7498e-08 5.30835e-08 2.76481e-07 -2.84349e-07 7.40581e-08 1.1133e-07 -4.69192e-07 6.09389e-08 
-1.53607e-08 -5.31139e-07 4.74582e-08 -1.33227e-07 -4.727e-07 4.90916e-08 -2.73681e-07 -2.73681e-07 6.13427e-08 
-4.05802e-07 6.30649e-08 6.07031e-08 8.64842e-08 -1.215e-07 1.0634e-07 -4.1337e-08 -4.31706e-07 8.86753e-08 
-1.20628e-07 -8.0682e-07 5.32826e-08 -2.09305e-08 -1.00059e-06 3.10601e-08 1.12903e-07 -8.05837e-07 3.11661e-08 
6.30649e-08 -4.05802e-07 6.07031e-08 -8.86608e-08 -8.86608e-08 1.00714e-07 -1.11496e-07 -1.11496e-07 8.62665e-08 
-1.79029e-07 3.36653e-07 8.05716e-08 -1.81554e-07 8.21499e-07 5.15944e-08 -1.19014e-08 1.09109e-06 2.83932e-08 
1.72685e-07 9.32029e-07 2.43002e-08 1.2225e-07 4.91488e-07 4.75148e-08 -8.34167e-08 9.44218e-08 8.64291e-08 
3.36653e-07 -1.79029e-07 8.05716e-08 2.42001e-07 2.42001e-07 5.86273e-08 1.15858e-07 4.85642e-07 2.88227e-08 
1.78642e-08 5.64224e-07 1.69681e-08 -8.58184e-08 4.87944e-07 3.07466e-08 -2.52424e-07 2.7325e-07 6.16584e-08 
-4.38733e-07 -6.73532e-08 7.95418e-08 8.21499e-07 -1.81554e-07 5.15944e-08 4.85642e-07 1.15858e-07 2.88227e-08 
1.70426e-07 1.70426e-07 1.19729e-08 6.33096e-09 1.45023e-07 1.20927e-08 -1.46289e-07 1.45681e-07 2.58019e-08 
-4.50376e-07 9.55626e-08 5.02759e-08 -8.32768e-07 -1.44962e-07 5.98427e-08 1.09109e-06 -1.19014e-08 2.83932e-08 
5.64224e-07 1.78642e-08 1.69681e-08 1.45023e-07 6.33096e-09 1.20927e-08 -3.67429e-09 -3.67429e-09 1.80433e-08 
-1.40413e-07 -9.32013e-09 2.58957e-08 -5.22573e-07 -2.07146e-08 4.05594e-08 -1.0296e-06 -3.20769e-08 4.61801e-08 
9.32029e-07 1.72685e-07 2.43002e-08 4.87944e-07 -8.58184e-08 3.07466e-08 1.45681e-07 -1.46289e-07 2.58019e-08 
-9.32013e-09 -1.40413e-07 2.58957e-08 -1.63055e-07 -1.63055e-07 3.19807e-08 -4.68511e-07 -1.24187e-07 4.3383e-08 
-8.36609e-07 1.21367e-07 4.17406e-08 4.91488e-07 1.2225e-07 4.75148e-08 2.7325e-07 -2.52424e-07 6.16584e-08 
9.55626e-08 -4.50376e-07 5.02759e-08 -2.07146e-08 -5.22573e-07 4.05594e-08 -1.24187e-07 -4.68511e-07 4.3383e-08 
-2.63142e-07 -2.63142e-07 5.4593e-08 -4.21496e-07 9.49675e-08 5.50862e-08 9.44218e-08 -8.34167e-08 8.64291e-08 
-6.73532e-08 -4.38733e-07 7.95418e-08 -1.44962e-07 -8.32768e-07 5.98427e-08 -3.20769e-08 -1.0296e-06 4.61801e-08 
1.21367e-07 -8.36609e-07 4.17406e-08 9.49675e-08 -4.21496e-07 5.50862e-08 -6.43806e-08 -6.43806e-08 7.89452e-08 
-9.75286e-08 -9.75286e-08 7.39393e-08 -1.97063e-07 3.27498e-07 7.27436e-08 -2.05685e-07 8.02156e-07 5.47914e-08 
-2.58221e-08 1.08025e-06 3.8602e-08 1.76626e-07 9.46642e-07 3.09678e-08 1.5066e-07 5.22993e-07 4.11244e-08 
-5.4434e-08 1.06694e-07 6.67105e-08 3.27498e-07 -1.97063e-07 7.27436e-08 2.11293e-07 2.11293e-07 4.97829e-08 
9.32931e-08 4.57131e-07 2.22822e-08 1.8109e-08 5.44778e-07 1.0783e-08 -6.27184e-08 4.77684e-07 2.12083e-08 
-2.2196e-07 2.68203e-07 4.82871e-08 -4.37769e-07 -7.91784e-08 6.88503e-08 8.02156e-07 -2.05685e-07 5.47914e-08 
4.57131e-07 9.32931e-08 2.22822e-08 1.6016e-07 1.6016e-07 -5.20387e-10 1.24871e-08 1.44273e-07 -3.79264e-09 
-1.24955e-07 1.40967e-07 9.50624e-09 -4.21491e-07 8.3595e-08 3.84338e-08 -8.37039e-07 -1.56518e-07 6.24168e-08 
1.08025e-06 -2.58221e-08 3.8602e-08 5.44778e-07 1.8109e-08 1.0783e-08 1.44273e-07 1.24871e-08 -3.79264e-09 
2.95923e-09 2.95923e-09 -1.70841e-09 -1.26911e-07 -5.72376e-09 8.68283e-09 -4.98968e-07 -2.3112e-08 3.24221e-08 
-1.03309e-06 -4.04658e-08 5.65509e-08 9.46642e-07 1.76626e-07 3.09678e-08 4.77684e-07 -6.27184e-08 2.12083e-08 
1.40967e-07 -1.24955e-07 9.50624e-09 -5.72376e-09 -1.26911e-07 8.68283e-09 -1.50829e-07 -1.50829e-07 1.79434e-08 
-4.52683e-07 -1.15156e-07 3.6896e-08 -8.48611e-07 1.20007e-07 4.95065e-08 5.22993e-07 1.5066e-07 4.11244e-08 
2.68203e-07 -2.2196e-07 4.82871e-08 8.3595e-08 -4.21491e-07 3.84338e-08 -2.3112e-08 -4.98968e-07 3.24221e-08 
-1.15156e-07 -4.52683e-07 3.6896e-08 -2.52998e-07 -2.52998e-07 4.79078e-08 -4.33406e-07 1.09591e-07 5.01393e-08 
1.06694e-07 -5.4434e-08 6.67105e-08 -7.91784e-08 -4.37769e-07 6.88503e-08 -1.56518e-07 -8.37039e-07 6.24168e-08 
-4.04658e-08 -1.03309e-06 5.65509e-08 1.20007e-07 -8.48611e-07 4.95065e-08 1.09591e-07 -4.33406e-07 5.01393e-08 
-5.11069e-08 -5.11069e-08 5.96294e-08 
FIELD FieldData 1
Gorkov%20potential 1 343 double
5.29964e-09 5.66518e-09 5.20641e-09 4.72362e-09 4.51315e-09 5.12238e-09 6.49392e-09 5.66518e-09 4.28318e-09 
2.90201e-09 2.32042e-09 2.77339e-09 4.14363e-09 5.7237e-09 5.20641e-09 2.90201e-09 1.85647e-09 1.72767e-09 
2.03732e-09 3.10093e-09 4.93e-09 4.72362e-09 2.32042e-09 1.72767e-09 1.89833e-09 1.93338e-09 2.61253e-09 
4.63047e-09 4.51315e-09 2.77339e-09 2.03732e-09 1.93338e-09 2.10912e-09 2.95478e-09 4.6802e-09 5.12238e-09 
4.14363e-09 3.10093e-09 2.61253e-09 2.95478e-09 4.05808e-09 5.4146e-09 6.49392e-09 5.7237e-09 4.93e-09 
4.63047e-09 4.6802e-09 5.4146e-09 6.60906e-09 4.87403e-09 5.28016e-09 5.16737e-09 4.94537e-09 4.65712e-09 
4.87117e-09 5.85736e-09 5.28016e-09 3.87501e-09 2.62988e-09 2.13483e-09 2.52874e-09 3.75425e-09 5.32478e-09 
5.16737e-09 2.62988e-09 1.42473e-09 1.2312e-09 1.59282e-09 2.79554e-09 4.93655e-09 4.94537e-09 2.13483e-09 
1.2312e-09 1.27379e-09 1.4316e-09 2.39509e-09 4.84722e-09 4.65712e-09 2.52874e-09 1.59282e-09 1.4316e-09 
1.68189e-09 2.71217e-09 4.76672e-09 4.87117e-09 3.75425e-09 2.79554e-09 2.39509e-09 2.71217e-09 3.71595e-09 
5.07763e-09 5.85736e-09 5.32478e-09 4.93655e-09 4.84722e-09 4.76672e-09 5.07763e-09 5.90402e-09 4.42989e-09 
4.88756e-09 5.07483e-09 5.0771e-09 4.73634e-09 4.62333e-09 5.25981e-09 4.88756e-09 3.50168e-09 2.39645e-09 
1.97453e-09 2.29827e-09 3.37376e-09 4.92149e-09 5.07483e-09 2.39645e-09 1.09989e-09 8.53839e-10 1.22275e-09 
2.48952e-09 4.86317e-09 5.0771e-09 1.97453e-09 8.53839e-10 7.95031e-10 1.02423e-09 2.17279e-09 4.95271e-09 
4.73634e-09 2.29827e-09 1.22275e-09 1.02423e-09 1.3233e-09 2.47706e-09 4.78775e-09 4.62333e-09 3.37376e-09 
2.48952e-09 2.17279e-09 2.47706e-09 3.40087e-09 4.76719e-09 5.25981e-09 4.92149e-09 4.86317e-09 4.95271e-09 
4.78775e-09 4.76719e-09 5.27154e-09 3.99426e-09 4.50398e-09 4.93809e-09 5.12442e-09 4.75409e-09 4.38577e-09 
4.72277e-09 4.50398e-09 3.1681e-09 2.20037e-09 1.84037e-09 2.09096e-09 3.0182e-09 4.529e-09 4.93809e-09 
2.20037e-09 8.70507e-10 5.86211e-10 9.30995e-10 2.19892e-09 4.72215e-09 5.12442e-09 1.84037e-09 5.86211e-10 
4.51452e-10 7.10614e-10 1.95629e-09 4.95505e-09 4.75409e-09 2.09096e-09 9.30995e-10 7.10614e-10 1.03396e-09 
2.25411e-09 4.74545e-09 4.38577e-09 3.0182e-09 2.19892e-09 1.95629e-09 2.25411e-09 3.11392e-09 4.48505e-09 
4.72277e-09 4.529e-09 4.72215e-09 4.95505e-09 4.74545e-09 4.48505e-09 4.72827e-09 3.5863e-09 4.14037e-09 
4.76676e-09 5.0978e-09 4.71818e-09 4.16398e-09 4.25864e-09 4.14037e-09 2.87527e-09 2.03903e-09 1.73291e-09 
1.91404e-09 2.70001e-09 4.15944e-09 4.76676e-09 2.03903e-09 7.23529e-10 4.16225e-10 7.17445e-10 1.93712e-09 
4.52926e-09 5.0978e-09 1.73291e-09 4.16225e-10 2.28571e-10 4.86369e-10 1.7556e-09 4.86905e-09 4.71818e-09 
1.91404e-09 7.17445e-10 4.86369e-10 8.11994e-10 2.04792e-09 4.64629e-09 4.16398e-09 2.70001e-09 1.93712e-09 
1.7556e-09 2.04792e-09 2.85482e-09 4.22973e-09 4.25864e-09 4.15944e-09 4.52926e-09 4.86905e-09 4.64629e-09 
4.22973e-09 4.27903e-09 3.21844e-09 3.80336e-09 4.57011e-09 5.01019e-09 4.63892e-09 3.96247e-09 3.87303e-09 
3.80336e-09 2.62185e-09 1.90917e-09 1.65203e-09 1.7724e-09 2.42812e-09 3.8224e-09 4.57011e-09 1.90917e-09 
6.45525e-10 3.30396e-10 5.7867e-10 1.71416e-09 4.30161e-09 5.01019e-09 1.65203e-09 3.30396e-10 1.09936e-10 
3.44445e-10 1.57905e-09 4.71296e-09 4.63892e-09 1.7724e-09 5.7867e-10 3.44445e-10 6.53754e-10 1.86267e-09 
4.49956e-09 3.96247e-09 2.42812e-09 1.71416e-09 1.57905e-09 1.86267e-09 2.62298e-09 3.9984e-09 3.87303e-09 
3.8224e-09 4.30161e-09 4.71296e-09 4.49956e-09 3.9984e-09 3.92042e-09 2.89778e-09 3.49661e-09 4.35671e-09 
4.87512e-09 4.52749e-09 3.78496e-09 3.56694e-09 3.49661e-09 2.40528e-09 1.80725e-09 1.59668e-09 1.66848e-09 
2.20803e-09 3.52518e-09 4.35671e-09 1.80725e-09 6.23605e-10 3.14913e-10 5.08701e-10 1.53649e-09 4.05585e-09 
4.87512e-09 1.59668e-09 3.14913e-10 7.86305e-11 2.76094e-10 1.43277e-09 4.50596e-09 4.52749e-09 1.66848e-09 
5.08701e-10 2.76094e-10 5.54376e-10 1.70189e-09 4.31612e-09 3.78496e-09 2.20803e-09 1.53649e-09 1.43277e-09 
1.70189e-09 2.41799e-09 3.78814e-09 3.56694e-09 3.52518e-09 4.05585e-09 4.50596e-09 4.31612e-09 3.78814e-09 
3.64417e-09 
