# vtk DataFile Version 3.0
vtk output
ASCII
DATASET STRUCTURED_GRID
DIMENSIONS 7 7 7
POINTS 343 double
54.4 54.4 178.1 58.4 54.4 178.1 62.4 54.4 178.1 
66.4 54.4 178.1 70.4 54.4 178.1 74.4 54.4 178.1 
78.4 54.4 178.1 54.4 58.4 178.1 58.4 58.4 178.1 
62.4 58.4 178.1 66.4 58.4 178.1 70.4 58.4 178.1 
74.4 58.4 178.1 78.4 58.4 178.1 54.4 62.4 178.1 
58.4 62.4 178.1 62.4 62.4 178.1 66.4 62.4 178.1 
70.4 62.4 178.1 74.4 62.4 178.1 78.4 62.4 178.1 
54.4 66.4 178.1 58.4 66.4 178.1 62.4 66.4 178.1 
66.4 66.4 178.1 70.4 66.4 178.1 74.4 66.4 178.1 
78.4 66.4 178.1 54.4 70.4 178.1 58.4 70.4 178.1 
62.4 70.4 178.1 66.4 70.4 178.1 70.4 70.4 178.1 
74.4 70.4 178.1 78.4 70.4 178.1 54.4 74.4 178.1 
58.4 74.4 178.1 62.4 74.4 178.1 66.4 74.4 178.1 
70.4 74.4 178.1 74.4 74.4 178.1 78.4 74.4 178.1 
54.4 78.4 178.1 58.4 78.4 178.1 62.4 78.4 178.1 
66.4 78.4 178.1 70.4 78.4 178.1 74.4 78.4 178.1 
78.4 78.4 178.1 54.4 54.4 182.1 58.4 54.4 182.1 
62.4 54.4 182.1 66.4 54.4 182.1 70.4 54.4 182.1 
74.4 54.4 182.1 78.4 54.4 182.1 54.4 58.4 182.1 
58.4 58.4 182.1 62.4 58.4 182.1 66.4 58.4 182.1 
70.4 58.4 182.1 74.4 58.4 182.1 78.4 58.4 182.1 
54.4 62.4 182.1 58.4 62.4 182.1 62.4 62.4 182.1 
66.4 62.4 182.1 70.4 62.4 182.1 74.4 62.4 182.1 
78.4 62.4 182.1 54.4 66.4 182.1 58.4 66.4 182.1 
62.4 66.4 182.1 66.4 66.4 182.1 70.4 66.4 182.1 
74.4 66.4 182.1 78.4 66.4 182.1 54.4 70.4 182.1 
58.4 70.4 182.1 62.4 70.4 182.1 66.4 70.4 182.1 
70.4 70.4 182.1 74.4 70.4 182.1 78.4 70.4 182.1 
54.4 74.4 182.1 58.4 74.4 182.1 62.4 74.4 182.1 
66.4 74.4 182.1 70.4 74.4 182.1 74.4 74.4 182.1 
78.4 74.4 182.1 54.4 78.4 182.1 58.4 78.4 182.1 
62.4 78.4 182.1 66.4 78.4 182.1 70.4 78.4 182.1 
74.4 78.4 182.1 78.4 78.4 182.1 54.4 54.4 186.1 
58.4 54.4 186.1 62.4 54.4 186.1 66.4 54.4 186.1 
70.4 54.4 186.1 74.4 54.4 186.1 78.4 54.4 186.1 
54.4 58.4 186.1 58.4 58.4 186.1 62.4 58.4 186.1 
66.4 58.4 186.1 70.4 58.4 186.1 74.4 58.4 186.1 
78.4 58.4 186.1 54.4 62.4 186.1 58.4 62.4 186.1 
62.4 62.4 186.1 66.4 62.4 186.1 70.4 62.4 186.1 
74.4 62.4 186.1 78.4 62.4 186.1 54.4 66.4 186.1 
58.4 66.4 186.1 62.4 66.4 186.1 66.4 66.4 186.1 
70.4 66.4 186.1 74.4 66.4 186.1 78.4 66.4 186.1 
54.4 70.4 186.1 58.4 70.4 186.1 62.4 70.4 186.1 
66.4 70.4 186.1 70.4 70.4 186.1 74.4 70.4 186.1 
78.4 70.4 186.1 54.4 74.4 186.1 58.4 74.4 186.1 
62.4 74.4 186.1 66.4 74.4 186.1 70.4 74.4 186.1 
74.4 74.4 186.1 78.4 74.4 186.1 54.4 78.4 186.1 
58.4 78.4 186.1 62.4 78.4 186.1 66.4 78.4 186.1 
70.4 78.4 186.1 74.4 78.4 186.1 78.4 78.4 186.1 
54.4 54.4 190.1 58.4 54.4 190.1 62.4 54.4 190.1 
66.4 54.4 190.1 70.4 54.4 190.1 74.4 54.4 190.1 
78.4 54.4 190.1 54.4 58.4 190.1 58.4 58.4 190.1 
62.4 58.4 190.1 66.4 58.4 190.1 70.4 58.4 190.1 
74.4 58.4 190.1 78.4 58.4 190.1 54.4 62.4 190.1 
58.4 62.4 190.1 62.4 62.4 190.1 66.4 62.4 190.1 
70.4 62.4 190.1 74.4 62.4 190.1 78.4 62.4 190.1 
54.4 66.4 190.1 58.4 66.4 190.1 62.4 66.4 190.1 
66.4 66.4 190.1 70.4 66.4 190.1 74.4 66.4 190.1 
78.4 66.4 190.1 54.4 70.4 190.1 58.4 70.4 190.1 
62.4 70.4 190.1 66.4 70.4 190.1 70.4 70.4 190.1 
74.4 70.4 190.1 78.4 70.4 190.1 54.4 74.4 190.1 
58.4 74.4 190.1 62.4 74.4 190.1 66.4 74.4 190.1 
70.4 74.4 190.1 74.4 74.4 190.1 78.4 74.4 190.1 
54.4 78.4 190.1 58.4 78.4 190.1 62.4 78.4 190.1 
66.4 78.4 190.1 70.4 78.4 190.1 74.4 78.4 190.1 
78.4 78.4 190.1 54.4 54.4 194.1 58.4 54.4 194.1 
62.4 54.4 194.1 66.4 54.4 194.1 70.4 54.4 194.1 
74.4 54.4 194.1 78.4 54.4 194.1 54.4 58.4 194.1 
58.4 58.4 194.1 62.4 58.4 194.1 66.4 58.4 194.1 
70.4 58.4 194.1 74.4 58.4 194.1 78.4 58.4 194.1 
54.4 62.4 194.1 58.4 62.4 194.1 62.4 62.4 194.1 
66.4 62.4 194.1 70.4 62.4 194.1 74.4 62.4 194.1 
78.4 62.4 194.1 54.4 66.4 194.1 58.4 66.4 194.1 
62.4 66.4 194.1 66.4 66.4 194.1 70.4 66.4 194.1 
74.4 66.4 194.1 78.4 66.4 194.1 54.4 70.4 194.1 
58.4 70.4 194.1 62.4 70.4 194.1 66.4 70.4 194.1 
70.4 70.4 194.1 74.4 70.4 194.1 78.4 70.4 194.1 
54.4 74.4 194.1 58.4 74.4 194.1 62.4 74.4 194.1 
66.4 74.4 194.1 70.4 74.4 194.1 74.4 74.4 194.1 
78.4 74.4 194.1 54.4 78.4 194.1 58.4 78.4 194.1 
62.4 78.4 194.1 66.4 78.4 194.1 70.4 78.4 194.1 
74.4 78.4 194.1 78.4 78.4 194.1 54.4 54.4 198.1 
58.4 54.4 198.1 62.4 54.4 198.1 66.4 54.4 198.1 
70.4 54.4 198.1 74.4 54.4 198.1 78.4 54.4 198.1 
54.4 58.4 198.1 58.4 58.4 198.1 62.4 58.4 198.1 
66.4 58.4 198.1 70.4 58.4 198.1 74.4 58.4 198.1 
78.4 58.4 198.1 54.4 62.4 198.1 58.4 62.4 198.1 
62.4 62.4 198.1 66.4 62.4 198.1 70.4 62.4 198.1 
74.4 62.4 198.1 78.4 62.4 198.1 54.4 66.4 198.1 
58.4 66.4 198.1 62.4 66.4 198.1 66.4 66.4 198.1 
70.4 66.4 198.1 74.4 66.4 198.1 78.4 66.4 198.1 
54.4 70.4 198.1 58.4 70.4 198.1 62.4 70.4 198.1 
66.4 70.4 198.1 70.4 70.4 198.1 74.4 70.4 198.1 
78.4 70.4 198.1 54.4 74.4 198.1 58.4 74.4 198.1 
62.4 74.4 198.1 66.4 74.4 198.1 70.4 74.4 198.1 
74.4 74.4 198.1 78.4 74.4 198.1 54.4 78.4 198.1 
58.4 78.4 198.1 62.4 78.4 198.1 66.4 78.4 198.1 
70.4 78.4 198.1 74.4 78.4 198.1 78.4 78.4 198.1 
54.4 54.4 202.1 58.4 54.4 202.1 62.4 54.4 202.1 
66.4 54.4 202.1 70.4 54.4 202.1 74.4 54.4 202.1 
78.4 54.4 202.1 54.4 58.4 202.1 58.4 58.4 202.1 
62.4 58.4 202.1 66.4 58.4 202.1 70.4 58.4 202.1 
74.4 58.4 202.1 78.4 58.4 202.1 54.4 62.4 202.1 
58.4 62.4 202.1 62.4 62.4 202.1 66.4 62.4 202.1 
70.4 62.4 202.1 74.4 62.4 202.1 78.4 62.4 202.1 
54.4 66.4 202.1 58.4 66.4 202.1 62.4 66.4 202.1 
66.4 66.4 202.1 70.4 66.4 202.1 74.4 66.4 202.1 
78.4 66.4 202.1 54.4 70.4 202.1 58.4 70.4 202.1 
62.4 70.4 202.1 66.4 70.4 202.1 70.4 70.4 202.1 
74.4 70.4 202.1 78.4 70.4 202.1 54.4 74.4 202.1 
58.4 74.4 202.1 62.4 74.4 202.1 66.4 74.4 202.1 
70.4 74.4 202.1 74.4 74.4 202.1 78.4 74.4 202.1 
54.4 78.4 202.1 58.4 78.4 202.1 62.4 78.4 202.1 
66.4 78.4 202.1 70.4 78.4 202.1 74.4 78.4 202.1 
78.4 78.4 202.1 
POINT_DATA 343
SCALARS Pressure%20magnitude double
LOOKUP_TABLE default
1550.09 1604.29 1530.31 1454.44 1420.42 1514.2 1709.1 1604.29 1398.55 
1142.94 1010.51 1106.21 1358.78 1596.59 1530.31 1142.94 916.472 879.902 
940.703 1155.47 1469.21 1454.44 1010.51 879.902 925.545 907.899 1039.99 
1419.7 1420.42 1106.21 940.703 907.899 934.023 1110.15 1426.8 1514.2 
1358.78 1155.47 1039.99 1110.15 1322.08 1543.64 1709.1 1596.59 1469.21 
1419.7 1426.8 1543.64 1719.31 1484.35 1546.11 1523.48 1488.36 1443.3 
1475.73 1620.1 1546.11 1327.87 1086.2 967.866 1054.83 1291.36 1537.44 
1523.48 1086.2 800.267 739.481 827.359 1094.57 1469.93 1488.36 967.866 
739.481 755.322 773.798 993.59 1453.83 1443.3 1054.83 827.359 773.798 
826.302 1061.69 1441.15 1475.73 1291.36 1094.57 993.59 1061.69 1263.22 
1493.2 1620.1 1537.44 1469.93 1453.83 1441.15 1493.2 1621.1 1412.97 
1485.12 1508.55 1507.47 1455.04 1436.5 1532.28 1485.12 1259.94 1034.64 
928.834 1003.56 1221.92 1475.74 1508.55 1034.64 699.489 611.206 719.844 
1030.36 1458.47 1507.47 928.834 611.206 593.103 646.211 944.484 1470.16 
1455.04 1003.56 719.844 646.211 725.422 1013.25 1445 1436.5 1221.92 
1030.36 944.484 1013.25 1206.99 1445.34 1532.28 1475.74 1458.47 1470.16 
1445 1445.34 1528.07 1339.71 1423.53 1486.72 1513.31 1456.57 1397.57 
1449.14 1423.53 1196.06 988.807 894.242 954.702 1153.32 1413.53 1486.72 
988.807 617.47 500.107 622.554 965.936 1436.54 1513.31 894.242 500.107 
441.875 529.181 894.821 1470.67 1456.57 954.702 622.554 529.181 634.471 
965.808 1438.87 1397.57 1153.32 965.936 894.821 965.808 1153.89 1400.59 
1449.14 1413.53 1436.54 1470.67 1438.87 1400.59 1443.71 1267.67 1362.95 
1459.19 1507.76 1449.32 1359.93 1373.46 1362.95 1137 948.937 864.929 
910.597 1088.35 1352.72 1459.19 948.937 557.203 413.405 540.902 904.554 
1406.26 1507.76 864.929 413.405 306.679 428.578 847.029 1457.8 1449.32 
910.597 540.902 428.578 557.099 920.54 1423.8 1359.93 1088.35 904.554 
847.029 920.54 1104.29 1359 1373.46 1352.72 1406.26 1457.8 1423.8 
1359 1370.29 1199.35 1304.56 1427.12 1492.79 1434.96 1324.55 1307.38 
1304.56 1083.17 915.065 841.564 873.373 1029.68 1295.1 1427.12 915.065 
520.466 360.327 481.164 849.453 1369.91 1492.79 841.564 360.327 201.055 
353.451 803.596 1434.11 1434.96 873.373 481.164 353.451 497.499 878.701 
1401.08 1324.55 1029.68 849.453 803.596 878.701 1058.48 1320.38 1307.38 
1295.1 1369.91 1434.11 1401.08 1320.38 1308.92 1136.7 1249.19 1391.6 
1470.33 1415.23 1292.33 1252.5 1249.19 1034.79 887.047 824.517 844.702 
979.714 1242.36 1391.6 887.047 506.707 347.354 448.998 803.623 1329.8 
1470.33 824.517 347.354 162.722 315.385 766.861 1402.17 1415.23 844.702 
448.998 315.385 459.725 841.577 1372.16 1292.33 979.714 803.623 766.861 
841.577 1016.8 1284.5 1252.5 1242.36 1329.8 1402.17 1372.16 1284.5 
1259.81 
VECTORS Force%20field double
-2.51233e-07 -2.51233e-07 1.00478e-07 4.31611e-08 2.46973e-07 9.4732e-08 1.39291e-07 6.43149e-07 4.03155e-09 
9.97051e-08 7.55795e-07 -6.58683e-08 -2.0926e-08 5.10106e-07 -4.40966e-08 -2.79225e-07 1.88872e-07 6.15853e-08 
-3.29453e-07 1.07957e-07 1.60875e-07 2.46973e-07 4.31611e-08 9.4732e-08 3.80639e-07 3.80639e-07 1.08803e-07 
2.70612e-07 4.29884e-07 7.58534e-08 2.61625e-08 3.72397e-07 5.10063e-08 -2.32084e-07 3.22931e-07 6.22994e-08 
-4.02366e-07 2.94101e-07 9.65052e-08 -3.28579e-07 2.51502e-07 9.80063e-08 6.43149e-07 1.39291e-07 4.03155e-09 
4.29884e-07 2.70612e-07 7.58534e-08 1.22952e-07 1.22952e-07 1.2436e-07 -1.14153e-08 -2.40937e-09 1.40378e-07 
-1.39045e-07 9.04228e-08 1.19629e-07 -3.74604e-07 2.24925e-07 7.43507e-08 -4.86418e-07 1.40803e-07 -1.1834e-08 
7.55795e-07 9.97051e-08 -6.58683e-08 3.72397e-07 2.61625e-08 5.10063e-08 -2.40937e-09 -1.14153e-08 1.40378e-07 
-1.26004e-08 -1.26004e-08 1.74805e-07 -2.25092e-08 6.23979e-09 1.36254e-07 -3.37039e-07 3.11962e-08 5.20618e-08 
-6.26139e-07 3.3193e-08 -6.77662e-08 5.10106e-07 -2.0926e-08 -4.40966e-08 3.22931e-07 -2.32084e-07 6.22994e-08 
9.04228e-08 -1.39045e-07 1.19629e-07 6.23979e-09 -2.25092e-08 1.36254e-07 -9.31024e-08 -9.31024e-08 1.13719e-07 
-3.35553e-07 -1.88534e-07 5.97817e-08 -5.09616e-07 -8.28153e-08 -2.97493e-08 1.88872e-07 -2.79225e-07 6.15853e-08 
2.94101e-07 -4.02366e-07 9.65052e-08 2.24925e-07 -3.74604e-07 7.43507e-08 3.11962e-08 -3.37039e-07 5.20618e-08 
-1.88534e-07 -3.35553e-07 5.97817e-08 -3.46588e-07 -3.46588e-07 8.70452e-08 -3.26393e-07 -2.88771e-07 8.63109e-08 
1.07957e-07 -3.29453e-07 1.60875e-07 2.51502e-07 -3.28579e-07 9.80063e-08 1.40803e-07 -4.86418e-07 -1.1834e-08 
3.3193e-08 -6.26139e-07 -6.77662e-08 -8.28153e-08 -5.09616e-07 -2.97493e-08 -2.88771e-07 -3.26393e-07 8.63109e-08 
-2.69526e-07 -2.69526e-07 1.82414e-07 -2.08451e-07 -2.08451e-07 1.09277e-07 -1.63711e-08 2.87764e-07 9.91394e-08 
4.64759e-08 7.18127e-07 1.84963e-08 7.14994e-08 8.74591e-07 -4.28534e-08 4.40676e-08 6.35917e-07 -2.73211e-08 
-1.62572e-07 2.62548e-07 6.24369e-08 -2.72368e-07 9.97478e-08 1.54949e-07 2.87764e-07 -1.63711e-08 9.91394e-08 
3.58971e-07 3.58971e-07 1.01193e-07 2.345e-07 4.77847e-07 6.65734e-08 2.04159e-08 4.62076e-07 4.54701e-08 
-2.01655e-07 3.93175e-07 6.05684e-08 -3.72196e-07 2.9233e-07 9.67207e-08 -3.60902e-07 1.5376e-07 1.00885e-07 
7.18127e-07 4.64759e-08 1.84963e-08 4.77847e-07 2.345e-07 6.65734e-08 1.52323e-07 1.52323e-07 9.70824e-08 
-1.26258e-08 5.74125e-08 1.1027e-07 -1.63807e-07 1.21146e-07 1.01932e-07 -4.24694e-07 1.94621e-07 7.61582e-08 
-5.94676e-07 5.29261e-08 8.45618e-09 8.74591e-07 7.14994e-08 -4.28534e-08 4.62076e-07 2.04159e-08 4.54701e-08 
5.74125e-08 -1.26258e-08 1.1027e-07 -1.44479e-08 -1.44479e-08 1.37534e-07 -7.85549e-08 2.38357e-09 1.12404e-07 
-4.23027e-07 2.12089e-08 5.3688e-08 -7.58225e-07 2.0961e-08 -4.04315e-08 6.35917e-07 4.40676e-08 -2.73211e-08 
3.93175e-07 -2.01655e-07 6.05684e-08 1.21146e-07 -1.63807e-07 1.01932e-07 2.38357e-09 -7.85549e-08 1.12404e-07 
-1.26532e-07 -1.26532e-07 9.60202e-08 -3.95871e-07 -1.68376e-07 5.77116e-08 -6.12753e-07 -6.7382e-09 -1.37924e-08 
2.62548e-07 -1.62572e-07 6.24369e-08 2.9233e-07 -3.72196e-07 9.67207e-08 1.94621e-07 -4.24694e-07 7.61582e-08 
2.12089e-08 -4.23027e-07 5.3688e-08 -1.68376e-07 -3.95871e-07 5.77116e-08 -3.25084e-07 -3.25084e-07 8.03596e-08 
-3.54918e-07 -1.69548e-07 8.06172e-08 9.97478e-08 -2.72368e-07 1.54949e-07 1.5376e-07 -3.60902e-07 1.00885e-07 
5.29261e-08 -5.94676e-07 8.45618e-09 2.0961e-08 -7.58225e-07 -4.04315e-08 -6.7382e-09 -6.12753e-07 -1.37924e-08 
-1.69548e-07 -3.54918e-07 8.06172e-08 -2.22704e-07 -2.22704e-07 1.68034e-07 -1.7513e-07 -1.7513e-07 1.10244e-07 
-7.03532e-08 3.14089e-07 9.85705e-08 -3.22152e-08 7.71311e-07 3.07516e-08 4.57901e-08 9.67437e-07 -2.04087e-08 
9.52805e-08 7.43843e-07 -1.06613e-08 -6.26966e-08 3.33209e-07 6.12929e-08 -2.15015e-07 9.35709e-08 1.42302e-07 
3.14089e-07 -7.03532e-08 9.85705e-08 3.32085e-07 3.32085e-07 9.16781e-08 2.01098e-07 5.04342e-07 5.73151e-08 
1.8356e-08 5.23361e-07 3.96129e-08 -1.69712e-07 4.44234e-07 5.63679e-08 -3.40888e-07 2.90887e-07 9.25064e-08 
-3.89031e-07 7.34641e-08 9.95807e-08 7.71311e-07 -3.22152e-08 3.07516e-08 5.04342e-07 2.01098e-07 5.73151e-08 
1.70846e-07 1.70846e-07 7.2171e-08 -9.22068e-09 1.00403e-07 8.19481e-08 -1.72938e-07 1.40761e-07 8.27506e-08 
-4.54762e-07 1.66434e-07 7.38317e-08 -6.86068e-07 -1.90836e-08 2.63786e-08 9.67437e-07 4.57901e-08 -2.04087e-08 
5.23361e-07 1.8356e-08 3.96129e-08 1.00403e-07 -9.22068e-09 8.19481e-08 -1.30987e-08 -1.30987e-08 1.02263e-07 
-1.14581e-07 -1.10657e-09 8.83197e-08 -4.81611e-07 1.01004e-08 5.28514e-08 -8.67049e-07 7.28801e-09 -1.3999e-08 
7.43843e-07 9.52805e-08 -1.06613e-08 4.44234e-07 -1.69712e-07 5.63679e-08 1.40761e-07 -1.72938e-07 8.27506e-08 
-1.10657e-09 -1.14581e-07 8.83197e-08 -1.4852e-07 -1.4852e-07 7.80013e-08 -4.37842e-07 -1.52776e-07 5.45946e-08 
-6.99045e-07 4.9852e-08 2.18147e-09 3.33209e-07 -6.26966e-08 6.12929e-08 2.90887e-07 -3.40888e-07 9.25064e-08 
1.66434e-07 -4.54762e-07 7.38317e-08 1.01004e-08 -4.81611e-07 5.28514e-08 -1.52776e-07 -4.37842e-07 5.45946e-08 
-3.06592e-07 -3.06592e-07 7.30929e-08 -3.78992e-07 -7.14613e-08 7.37634e-08 9.35709e-08 -2.15015e-07 1.42302e-07 
7.34641e-08 -3.89031e-07 9.95807e-08 -1.90836e-08 -6.86068e-07 2.63786e-08 7.28801e-09 -8.67049e-07 -1.3999e-08 
4.9852e-08 -6.99045e-07 2.18147e-09 -7.14613e-08 -3.78992e-07 7.37634e-08 -1.74908e-07 -1.74908e-07 1.47671e-07 
-1.49472e-07 -1.49472e-07 1.05452e-07 -1.16151e-07 3.28616e-07 9.46478e-08 -9.5653e-08 8.03918e-07 4.06433e-08 
2.33397e-08 1.03304e-06 -1.20838e-10 1.32822e-07 8.29872e-07 4.43707e-09 1.81959e-08 3.97136e-07 5.85476e-08 
-1.61944e-07 9.12434e-08 1.25515e-07 3.28616e-07 -1.16151e-07 9.46478e-08 3.02476e-07 3.02476e-07 8.14757e-08 
1.70821e-07 5.12517e-07 4.84698e-08 1.84925e-08 5.58869e-07 3.34022e-08 -1.38415e-07 4.76647e-07 5.0005e-08 
-3.0934e-07 2.8887e-07 8.47259e-08 -4.11337e-07 1.17471e-08 9.49611e-08 8.03918e-07 -9.5653e-08 4.06433e-08 
5.12517e-07 1.70821e-07 4.84698e-08 1.7979e-07 1.7979e-07 5.02165e-08 -3.35504e-09 1.28473e-07 5.62515e-08 
-1.70115e-07 1.50989e-07 6.3128e-08 -4.66394e-07 1.41331e-07 6.79085e-08 -7.56696e-07 -7.45598e-08 4.08075e-08 
1.03304e-06 2.33397e-08 -1.20838e-10 5.58869e-07 1.84925e-08 3.34022e-08 1.28473e-07 -3.35504e-09 5.62515e-08 
-9.70456e-09 -9.70456e-09 7.02269e-08 -1.33711e-07 -3.66241e-09 6.50567e-08 -5.14641e-07 -5.35116e-10 4.95631e-08 
-9.49115e-07 -6.51244e-09 9.48439e-09 8.29872e-07 1.32822e-07 4.43707e-09 4.76647e-07 -1.38415e-07 5.0005e-08 
1.50989e-07 -1.70115e-07 6.3128e-08 -3.66241e-09 -1.33711e-07 6.50567e-08 -1.6003e-07 -1.6003e-07 6.03753e-08 
-4.62298e-07 -1.4055e-07 5.04343e-08 -7.66273e-07 8.8118e-08 1.69579e-08 3.97136e-07 1.81959e-08 5.85476e-08 
2.8887e-07 -3.0934e-07 8.47259e-08 1.41331e-07 -4.66394e-07 6.79085e-08 -5.35116e-10 -5.14641e-07 4.95631e-08 
-1.4055e-07 -4.62298e-07 5.04343e-08 -2.90874e-07 -2.90874e-07 6.57611e-08 -3.99204e-07 3.88725e-09 6.68208e-08 
9.12434e-08 -1.61944e-07 1.25515e-07 1.17471e-08 -4.11337e-07 9.49611e-08 -7.45598e-08 -7.56696e-07 4.08075e-08 
-6.51244e-09 -9.49115e-07 9.48439e-09 8.8118e-08 -7.66273e-07 1.69579e-08 3.88725e-09 -3.99204e-07 6.68208e-08 
-1.31426e-07 -1.31426e-07 1.24682e-07 -1.29288e-07 -1.29288e-07 9.67737e-08 -1.52408e-07 3.33939e-07 8.86293e-08 
-1.44239e-07 8.17847e-07 4.81732e-08 4.25405e-09 1.07185e-06 1.70895e-08 1.57641e-07 8.92045e-07 1.70723e-08 
7.98839e-08 4.5152e-07 5.44588e-08 -1.16124e-07 9.3583e-08 1.06558e-07 3.33939e-07 -1.52408e-07 8.86293e-08 
2.71937e-07 2.71937e-07 7.13517e-08 1.43538e-07 5.05662e-07 4.02668e-08 1.94193e-08 5.72101e-07 2.69663e-08 
-1.09377e-07 4.92005e-07 4.19945e-08 -2.78206e-07 2.85524e-07 7.42651e-08 -4.2663e-07 -3.20188e-08 8.77294e-08 
8.17847e-07 -1.44239e-07 4.81732e-08 5.05662e-07 1.43538e-07 4.02668e-08 1.80559e-07 1.80559e-07 3.14525e-08 
3.1867e-09 1.43948e-07 3.36794e-08 -1.58879e-07 1.53711e-07 4.39777e-08 -4.62056e-07 1.19807e-07 5.91627e-08 
-8.04699e-07 -1.14156e-07 5.11842e-08 1.07185e-06 4.25405e-09 1.70895e-08 5.72101e-07 1.94193e-08 2.69663e-08 
1.43948e-07 3.1867e-09 3.36794e-08 -5.24624e-09 -5.24624e-09 4.21329e-08 -1.3939e-07 -4.93027e-09 4.34023e-08 
-5.25204e-07 -9.48369e-09 4.41457e-08 -1.0032e-06 -1.92667e-08 2.88195e-08 8.92045e-07 1.57641e-07 1.70723e-08 
4.92005e-07 -1.09377e-07 4.19945e-08 1.53711e-07 -1.58879e-07 4.39777e-08 -4.93027e-09 -1.3939e-07 4.34023e-08 
-1.62434e-07 -1.62434e-07 4.36681e-08 -4.7087e-07 -1.30395e-07 4.53132e-08 -8.13552e-07 1.10509e-07 2.96858e-08 
4.5152e-07 7.98839e-08 5.44588e-08 2.85524e-07 -2.78206e-07 7.42651e-08 1.19807e-07 -4.62056e-07 5.91627e-08 
-9.48369e-09 -5.25204e-07 4.41457e-08 -1.30395e-07 -4.7087e-07 4.53132e-08 -2.7724e-07 -2.7724e-07 5.85757e-08 
-4.15794e-07 5.71326e-08 6.03476e-08 9.3583e-08 -1.16124e-07 1.06558e-07 -3.20188e-08 -4.2663e-07 8.77294e-08 
-1.14156e-07 -8.04699e-07 5.11842e-08 -1.92667e-08 -1.0032e-06 2.88195e-08 1.10509e-07 -8.13552e-07 2.96858e-08 
5.71326e-08 -4.15794e-07 6.03476e-08 -9.59455e-08 -9.59455e-08 1.01527e-07 -1.12454e-07 -1.12454e-07 8.57425e-08 
-1.78761e-07 3.32346e-07 8.14231e-08 -1.79304e-07 8.15398e-07 5.34639e-08 -1.17757e-08 1.08563e-06 3.08465e-08 
1.71109e-07 9.30196e-07 2.68281e-08 1.23434e-07 4.9455e-07 4.92294e-08 -7.91294e-08 1.00572e-07 8.68319e-08 
3.32346e-07 -1.78761e-07 8.14231e-08 2.41712e-07 2.41712e-07 6.1731e-08 1.18889e-07 4.86971e-07 3.28194e-08 
1.99771e-08 5.66929e-07 2.05189e-08 -8.37557e-08 4.9256e-07 3.29468e-08 -2.48057e-07 2.80383e-07 6.19944e-08 
-4.34271e-07 -5.95443e-08 7.84841e-08 8.15398e-07 -1.79304e-07 5.34639e-08 4.86971e-07 1.18889e-07 3.28194e-08 
1.74606e-07 1.74606e-07 1.58533e-08 9.06239e-09 1.49242e-07 1.44414e-08 -1.42387e-07 1.50756e-07 2.60289e-08 
-4.44703e-07 1.02038e-07 4.8469e-08 -8.29997e-07 -1.39304e-07 5.7435e-08 1.08563e-06 -1.17757e-08 3.08465e-08 
5.66929e-07 1.99771e-08 2.05189e-08 1.49242e-07 9.06239e-09 1.44414e-08 -5.1292e-10 -5.1292e-10 1.82583e-08 
-1.34992e-07 -4.7769e-09 2.38794e-08 -5.17039e-07 -1.59517e-08 3.70968e-08 -1.02998e-06 -3.00274e-08 4.3513e-08 
9.30196e-07 1.71109e-07 2.68281e-08 4.9256e-07 -8.37557e-08 3.29468e-08 1.50756e-07 -1.42387e-07 2.60289e-08 
-4.7769e-09 -1.34992e-07 2.38794e-08 -1.5732e-07 -1.5732e-07 2.82361e-08 -4.65678e-07 -1.21174e-07 3.93784e-08 
-8.41113e-07 1.20049e-07 3.98611e-08 4.9455e-07 1.23434e-07 4.92294e-08 2.80383e-07 -2.48057e-07 6.19944e-08 
1.02038e-07 -4.44703e-07 4.8469e-08 -1.59517e-08 -5.17039e-07 3.70968e-08 -1.21174e-07 -4.65678e-07 3.93784e-08 
-2.64855e-07 -2.64855e-07 5.15673e-08 -4.28719e-07 9.03786e-08 5.45254e-08 1.00572e-07 -7.91294e-08 8.68319e-08 
-5.95443e-08 -4.34271e-07 7.84841e-08 -1.39304e-07 -8.29997e-07 5.7435e-08 -3.00274e-08 -1.02998e-06 4.3513e-08 
1.20049e-07 -8.41113e-07 3.98611e-08 9.03786e-08 -4.28719e-07 5.45254e-08 -7.05457e-08 -7.05457e-08 7.9805e-08 
-9.71771e-08 -9.71771e-08 7.35261e-08 -1.9554e-07 3.25724e-07 7.3644e-08 -2.02632e-07 7.99048e-07 5.67215e-08 
-2.5268e-08 1.07709e-06 4.11739e-08 1.74743e-07 9.45568e-07 3.36714e-08 1.50629e-07 5.25383e-07 4.30631e-08 
-5.14508e-08 1.11618e-07 6.72712e-08 3.25724e-07 -1.9554e-07 7.3644e-08 2.12635e-07 2.12635e-07 5.2806e-08 
9.64824e-08 4.59383e-07 2.61617e-08 1.9329e-08 5.47211e-07 1.42941e-08 -6.23246e-08 4.80885e-07 2.34758e-08 
-2.19457e-07 2.73297e-07 4.87318e-08 -4.34195e-07 -7.30733e-08 6.77653e-08 7.99048e-07 -2.02632e-07 5.67215e-08 
4.59383e-07 9.64824e-08 2.61617e-08 1.6335e-07 1.6335e-07 3.2202e-09 1.33707e-08 1.46632e-07 -1.47789e-09 
-1.23276e-07 1.43757e-07 9.80717e-09 -4.17441e-07 8.79863e-08 3.66924e-08 -8.33924e-07 -1.51817e-07 5.98531e-08 
1.07709e-06 -2.5268e-08 4.11739e-08 5.47211e-07 1.9329e-08 1.42941e-08 1.46632e-07 1.33707e-08 -1.47789e-09 
3.89597e-09 3.89597e-09 -1.43762e-09 -1.23569e-07 -3.26249e-09 6.77927e-09 -4.94067e-07 -1.95479e-08 2.89776e-08 
-1.03151e-06 -3.81213e-08 5.35995e-08 9.45568e-07 1.74743e-07 3.36714e-08 4.80885e-07 -6.23246e-08 2.34758e-08 
1.43757e-07 -1.23276e-07 9.80717e-09 -3.26249e-09 -1.23569e-07 6.77927e-09 -1.46347e-07 -1.46347e-07 1.42937e-08 
-4.49079e-07 -1.12048e-07 3.28202e-08 -8.50062e-07 1.19824e-07 4.72767e-08 5.25383e-07 1.50629e-07 4.30631e-08 
2.73297e-07 -2.19457e-07 4.87318e-08 8.79863e-08 -4.17441e-07 3.66924e-08 -1.95479e-08 -4.94067e-07 2.89776e-08 
-1.12048e-07 -4.49079e-07 3.28202e-08 -2.52937e-07 -2.52937e-07 4.46827e-08 -4.37777e-07 1.06533e-07 4.92981e-08 
1.11618e-07 -5.14508e-08 6.72712e-08 -7.30733e-08 -4.34195e-07 6.77653e-08 -1.51817e-07 -8.33924e-07 5.98531e-08 
-3.81213e-08 -1.03151e-06 5.35995e-08 1.19824e-07 -8.50062e-07 4.72767e-08 1.06533e-07 -4.37777e-07 4.92981e-08 
-5.59062e-08 -5.59062e-08 6.03925e-08 
FIELD FieldData 1
Gorkov%20potential 1 343 double
5.32298e-09 5.72403e-09 5.27447e-09 4.78599e-09 4.57289e-09 5.16726e-09 6.51371e-09 5.72403e-09 4.39636e-09 
3.01901e-09 2.40876e-09 2.82596e-09 4.15475e-09 5.70576e-09 5.27447e-09 3.01901e-09 1.95426e-09 1.77967e-09 
2.04071e-09 3.05637e-09 4.8704e-09 4.78599e-09 2.40876e-09 1.77967e-09 1.90072e-09 1.88473e-09 2.52283e-09 
4.55408e-09 4.57289e-09 2.82596e-09 2.04071e-09 1.88473e-09 2.01326e-09 2.83967e-09 4.61001e-09 5.16726e-09 
4.15475e-09 3.05637e-09 2.52283e-09 2.83967e-09 3.95282e-09 5.36637e-09 6.51371e-09 5.70576e-09 4.8704e-09 
4.55408e-09 4.61001e-09 5.36637e-09 6.59836e-09 4.90051e-09 5.33432e-09 5.22873e-09 5.00358e-09 4.71599e-09 
4.91847e-09 5.87933e-09 5.33432e-09 3.97547e-09 2.73408e-09 2.21573e-09 2.57938e-09 3.76669e-09 5.30642e-09 
5.22873e-09 2.73408e-09 1.51202e-09 1.27879e-09 1.59691e-09 2.75392e-09 4.87662e-09 5.00358e-09 2.21573e-09 
1.27879e-09 1.27644e-09 1.38713e-09 2.31055e-09 4.77061e-09 4.71599e-09 2.57938e-09 1.59691e-09 1.38713e-09 
1.59353e-09 2.60434e-09 4.69733e-09 4.91847e-09 3.76669e-09 2.75392e-09 2.31055e-09 2.60434e-09 3.61768e-09 
5.03189e-09 5.87933e-09 5.30642e-09 4.87662e-09 4.77061e-09 4.69733e-09 5.03189e-09 5.89483e-09 4.45921e-09 
4.93753e-09 5.12946e-09 5.12961e-09 4.79164e-09 4.67042e-09 5.28306e-09 4.93753e-09 3.58933e-09 2.48638e-09 
2.04544e-09 2.34472e-09 3.3869e-09 4.90425e-09 5.12946e-09 2.48638e-09 1.17443e-09 8.95107e-10 1.22723e-09 
2.45263e-09 4.80594e-09 5.12961e-09 2.04544e-09 8.95107e-10 7.97753e-10 9.85795e-10 2.09663e-09 4.87877e-09 
4.79164e-09 2.34472e-09 1.22723e-09 9.85795e-10 1.24552e-09 2.37938e-09 4.72034e-09 4.67042e-09 3.3869e-09 
2.45263e-09 2.09663e-09 2.37938e-09 3.31069e-09 4.72295e-09 5.28306e-09 4.90425e-09 4.80594e-09 4.87877e-09 
4.72034e-09 4.72295e-09 5.26204e-09 4.02623e-09 4.55021e-09 4.98587e-09 5.16976e-09 4.80339e-09 4.43025e-09 
4.74641e-09 4.55021e-09 3.24294e-09 2.275e-09 1.89931e-09 2.13133e-09 3.03139e-09 4.51419e-09 4.98587e-09 
2.275e-09 9.30696e-10 6.19686e-10 9.3549e-10 2.16807e-09 4.67027e-09 5.16976e-09 1.89931e-09 6.19686e-10 
4.53999e-10 6.79464e-10 1.89103e-09 4.88657e-09 4.80339e-09 2.13133e-09 9.3549e-10 6.79464e-10 9.68992e-10 
2.16898e-09 4.6815e-09 4.43025e-09 3.03139e-09 2.16807e-09 1.89103e-09 2.16898e-09 3.03301e-09 4.44187e-09 
4.74641e-09 4.51419e-09 4.67027e-09 4.88657e-09 4.6815e-09 4.44187e-09 4.71692e-09 3.62076e-09 4.18313e-09 
4.80747e-09 5.1347e-09 4.75945e-09 4.20383e-09 4.2818e-09 4.18313e-09 2.9374e-09 2.09776e-09 1.77853e-09 
1.94688e-09 2.71266e-09 4.14804e-09 4.80747e-09 2.09776e-09 7.6843e-10 4.40916e-10 7.2157e-10 1.91313e-09 
4.4849e-09 5.1347e-09 1.77853e-09 4.40916e-10 2.30663e-10 4.63184e-10 1.70297e-09 4.80846e-09 4.75945e-09 
1.94688e-09 7.2157e-10 4.63184e-10 7.6128e-10 1.97719e-09 4.58742e-09 4.20383e-09 2.71266e-09 1.91313e-09 
1.70297e-09 1.97719e-09 2.7844e-09 4.18774e-09 4.2818e-09 4.14804e-09 4.4849e-09 4.80846e-09 4.58742e-09 
4.18774e-09 4.26476e-09 3.25516e-09 3.84275e-09 4.60348e-09 5.03766e-09 4.67066e-09 3.9961e-09 3.89495e-09 
3.84275e-09 2.67145e-09 1.95185e-09 1.68359e-09 1.79676e-09 2.43968e-09 3.81503e-09 4.60348e-09 1.95185e-09 
6.74848e-10 3.45795e-10 5.82058e-10 1.69737e-09 4.26632e-09 5.03766e-09 1.68359e-09 3.45795e-10 1.11296e-10 
3.29393e-10 1.54004e-09 4.66223e-09 4.67066e-09 1.79676e-09 5.82058e-10 3.29393e-10 6.1794e-10 1.80756e-09 
4.44743e-09 3.9961e-09 2.43968e-09 1.69737e-09 1.54004e-09 1.80756e-09 2.56417e-09 3.95821e-09 3.89495e-09 
3.81503e-09 4.26632e-09 4.66223e-09 4.44743e-09 3.95821e-09 3.90276e-09 2.93639e-09 3.5325e-09 4.38247e-09 
4.89252e-09 4.54872e-09 3.81124e-09 3.58691e-09 3.5325e-09 2.44262e-09 1.83415e-09 1.61408e-09 1.68387e-09 
2.21803e-09 3.52213e-09 4.38247e-09 1.83415e-09 6.37644e-10 3.20953e-10 5.11028e-10 1.52682e-09 4.03054e-09 
4.89252e-09 1.61408e-09 3.20953e-10 7.90152e-11 2.6891e-10 1.40763e-09 4.46652e-09 4.54872e-09 1.68387e-09 
5.11028e-10 2.6891e-10 5.33401e-10 1.66299e-09 4.27222e-09 3.81124e-09 2.21803e-09 1.52682e-09 1.40763e-09 
1.66299e-09 2.3717e-09 3.75074e-09 3.58691e-09 3.52213e-09 4.03054e-09 4.46652e-09 4.27222e-09 3.75074e-09 
3.62322e-09 
